# vtk DataFile Version 4.2
vtk output
ASCII
DATASET POLYDATA
FIELD FieldData 4
VolumeDependent 1 1 bit
0 
MeshName 1 1 string
SpatialGrid

CYCLE 1 1 int
101072 
TIME 1 1 double
1284.011274 
POINTS 5328 float
5.64373 -2.16573 -8 5.64373 -2.16573 -7.98894 0.595009 10.6844 -8 
0.595009 10.6844 -7.98894 1.16824 -9.69096 -7.84889 1.16015 -9.71747 -7.83075 
5.65274 -2.15872 -7.97937 5.65758 -2.12728 -7.9726 5.99394 -1.81213 -7.89036 
5.95627 -1.90306 -7.83075 5.99394 -1.7253 -7.89036 5.99394 -1.65455 -7.89036 
6.01778 -1.58923 -7.83075 5.87281 2.8534 -7.97109 5.88208 2.85047 -7.9646 
5.99246 2.7851 -7.96133 6.0266 2.83853 -7.83075 5.94457 3.46578 -7.83075 
5.89592 3.43461 -7.8847 5.87281 3.43151 -7.91272 5.60273 4.17578 -7.85754 
5.62173 4.17094 -7.84112 5.62814 4.16849 -7.83806 5.63658 4.16711 -7.83075 
5.60273 4.28087 -7.85754 5.60273 4.33335 -7.85754 5.62791 4.34753 -7.83075 
5.63494 4.34077 -7.84617 0.521892 10.7054 -7.95601 0.52841 10.6878 -7.85782 
0.476174 10.757 -7.87509 0.264798 10.9516 -7.85886 0.261436 10.9793 -7.83075 
5.95627 -1.90306 -7.73946 5.95627 -1.90306 -7.67255 5.95624 -3.3879 -7.53401 
5.9488 -3.4074 -7.51435 5.95624 -3.36832 -7.53401 5.95624 -3.23032 -7.53401 
5.9652 -3.21387 -7.51435 5.95412 -3.20982 -7.53493 6.28061 -2.12728 -7.5442 
6.26177 -2.13815 -7.51435 6.87831 -2.14119 -7.51435 6.87758 -2.14134 -7.51491 
6.85465 -2.12728 -7.53563 6.28061 -2.09176 -7.5442 6.28061 -1.96971 -7.5442 
6.85465 -2.04656 -7.53563 6.85465 -1.96971 -7.53563 6.00596 -1.92159 -7.62288 
6.03154 -1.94268 -7.59889 6.05876 -1.94268 -7.59889 6.19026 -1.94268 -7.59889 
6.31163 -1.81213 -7.65333 6.27512 -1.94398 -7.54003 6.33311 -1.81213 -7.64635 
6.66643 -1.95184 -7.56041 6.61073 -1.86743 -7.60303 6.62421 -1.81213 -7.60392 
6.82516 -1.95184 -7.56041 6.68443 -1.95184 -7.56041 6.83151 -1.95837 -7.55485 
6.31163 -1.69059 -7.65333 6.31163 -1.65455 -7.65333 6.33311 -1.67987 -7.64635 
6.33311 -1.65455 -7.64635 6.62421 -1.69647 -7.60392 6.62421 -1.65455 -7.60392 
6.19026 -1.58302 -7.66543 6.34011 -1.58293 -7.51435 6.61367 -1.54936 -7.61471 
6.6507 -1.49698 -7.56641 6.6507 -1.38308 -7.56641 6.6507 -1.3394 -7.56641 
6.64819 -1.23248 -7.55991 6.64617 -1.18182 -7.55645 6.64617 -1.08302 -7.55645 
6.64617 -1.02425 -7.55645 6.34297 -0.866671 -7.647 6.33671 -0.931422 -7.51435 
6.57762 -0.978296 -7.54393 6.54934 -0.907999 -7.63712 6.54173 -0.866671 -7.637 
6.34297 -0.720035 -7.647 6.34297 -0.709094 -7.647 6.54173 -0.832893 -7.637 
6.54173 -0.709094 -7.637 6.34898 -0.593156 -7.63533 6.26998 -0.619377 -7.51435 
6.34648 -0.551518 -7.62371 6.50771 -0.593156 -7.63533 6.46577 -0.593156 -7.63533 
6.54496 -0.672117 -7.62972 6.34648 -0.399333 -7.62371 6.34648 -0.393941 -7.62371 
6.34862 -0.237141 -7.60603 6.34799 -0.236365 -7.60511 6.34799 -0.0811324 -7.60511 
6.34799 -0.0787883 -7.60511 6.34898 -0.0242634 -7.60191 6.40391 -0.0242634 -7.60191 
6.50771 -0.0242634 -7.60191 6.51374 0.0728048 -7.59051 6.514 0.0787883 -7.58979 
6.514 0.0857141 -7.58979 6.514 0.236365 -7.58979 6.34898 0.36038 -7.5875 
6.34722 0.389578 -7.58396 6.34619 0.393941 -7.58267 6.50771 0.36038 -7.5875 
6.4739 0.36038 -7.5875 6.51356 0.243703 -7.58959 6.34619 0.544312 -7.58267 
6.34619 0.551518 -7.58267 6.34898 0.56588 -7.58586 6.36345 0.56588 -7.58586 
6.50771 0.56588 -7.58586 6.5244 0.709094 -7.57503 6.5244 0.731378 -7.57503 
6.5244 0.866671 -7.57503 6.52721 0.891959 -7.57368 6.54897 1.02425 -7.56628 
6.54897 1.07775 -7.56628 6.54897 1.18182 -7.56628 6.56848 1.25135 -7.55828 
6.59054 1.3394 -7.55238 6.59054 1.43416 -7.55238 6.59054 1.49698 -7.55238 
6.65767 1.57957 -7.51435 6.29265 2.60001 -7.5897 6.26696 2.44384 -7.51435 
6.29265 2.67506 -7.5897 6.29265 2.75759 -7.5897 6.19026 2.84251 -7.66342 
6.19631 2.84205 -7.65772 6.30618 2.80326 -7.6267 6.26085 3.50609 -7.51435 
6.24253 3.50001 -7.53324 6.19026 3.4845 -7.58917 5.87281 4.1722 -7.59767 
5.88141 4.17578 -7.58404 5.88141 4.19533 -7.58404 5.88141 4.33335 -7.58404 
5.87819 4.33862 -7.59657 5.87281 4.34045 -7.59446 5.71409 5.41064 -7.62841 
5.70872 5.43639 -7.60874 5.87281 5.41064 -7.62841 5.84244 5.41064 -7.62841 
5.95727 5.3936 -7.56465 5.96212 5.387 -7.56394 6.01574 5.39728 -7.51435 
5.70872 5.57994 -7.60874 5.70872 5.59397 -7.60874 5.69725 5.60285 -7.60697 
5.69461 5.6133 -7.62424 5.66101 5.75154 -7.59508 5.66101 5.85642 -7.59508 
5.66101 5.90912 -7.59508 5.56657 6.05557 -7.59887 5.56088 6.0667 -7.5979 
5.56088 6.07404 -7.5979 5.56088 6.22427 -7.5979 5.39664 6.24119 -7.59444 
5.35221 6.38185 -7.55975 5.55536 6.24119 -7.59444 5.41368 6.24119 -7.59444 
5.5571 6.23672 -7.59506 5.35221 6.49532 -7.55975 5.35221 6.53943 -7.55975 
5.29016 6.64513 -7.54995 5.26396 6.697 -7.54008 5.26396 6.7635 -7.54008 
5.26396 6.85458 -7.54008 5.07919 6.91862 -7.51921 5.00645 7.01119 -7.51463 
5.00584 7.01216 -7.51447 5.0965 6.91862 -7.51921 5.23791 6.91862 -7.51921 
5.00584 7.16943 -7.51447 5.00584 7.16973 -7.51447 5.00535 7.17045 -7.51435 
0.0992988 11.2667 -7.53527 0.0962541 11.2866 -7.51435 5.9488 -3.4074 -7.49477 
5.9488 -3.4074 -7.35616 5.9652 -3.21387 -7.35616 5.9652 -3.21387 -7.48074 
6.26177 -2.13815 -7.50345 6.26177 -2.13815 -7.35616 6.87831 -2.14119 -7.50039 
6.87831 -2.14119 -7.35616 6.65767 1.57957 -7.42221 6.65767 1.57957 -7.35616 
6.01574 5.39728 -7.35616 6.01574 5.39728 -7.44275 5.00535 7.17045 -7.35737 
5.00535 7.17045 -7.35616 0.158725 -11.9363 -7.29093 0.161881 -11.9332 -7.29055 
0.203796 -11.897 -7.2921 0.203796 -11.8033 -7.2921 0.203796 -11.7395 -7.2921 
0.215928 -11.7251 -7.3027 0.317449 -11.6382 -7.33285 0.340838 -11.6382 -7.33285 
0.476174 -11.6382 -7.33285 0.514867 -11.603 -7.32706 0.546846 -11.5819 -7.31613 
0.546846 -11.4642 -7.31613 0.546846 -11.4243 -7.31613 0.584758 -11.3636 -7.22547 
0.634898 -11.3475 -7.33033 0.597838 -11.3238 -7.19796 0.572844 -11.376 -7.22462 
0.535321 -11.3932 -7.19796 0.660807 -11.3475 -7.33033 0.793623 -11.3475 -7.33033 
0.930731 -11.2806 -7.23805 0.952348 -11.2759 -7.21101 0.880745 -11.308 -7.26932 
1.03098 -11.2759 -7.21101 1.11107 -11.2759 -7.21101 1.12764 -11.27 -7.19796 
0.905725 -10.7478 -7.22275 0.916037 -10.7646 -7.19796 0.911226 -10.7279 -7.23894 
0.952348 -10.7345 -7.24048 1.11107 -10.7345 -7.24048 1.06841 -10.7345 -7.24048 
1.18712 -10.6501 -7.19796 1.15275 -10.7458 -7.21687 1.25832 -10.4253 -7.23312 
1.21127 -10.4681 -7.19796 1.2698 -10.4141 -7.23281 1.42852 -10.4141 -7.23281 
1.39356 -10.4141 -7.23281 1.45495 -10.414 -7.19796 5.95034 -4.33335 -7.20991 
5.94818 -4.34426 -7.19796 5.95034 -4.32145 -7.20991 5.95034 -4.17578 -7.20991 
5.9531 -4.17058 -7.19796 5.94894 -4.16628 -7.20749 5.95215 -3.39698 -7.35221 
5.95104 -3.3879 -7.35272 5.95104 -3.23732 -7.35272 5.95104 -3.23032 -7.35272 
6.92438 -3.11534 -7.19796 6.92054 -3.09559 -7.20683 6.91294 -3.07274 -7.21724 
6.91294 -2.94874 -7.21724 6.91294 -2.91517 -7.21724 6.93362 -2.84116 -7.22662 
6.89481 -2.84602 -7.25745 6.87766 -2.75759 -7.28761 6.87766 -2.70547 -7.28761 
6.87766 -2.60001 -7.28761 6.85613 -2.56927 -7.31047 6.89967 -2.44244 -7.31465 
6.89967 -2.35462 -7.31465 6.89967 -2.28486 -7.31465 6.26394 -2.13304 -7.35371 
6.26325 -2.12728 -7.35395 7.87174 -1.82772 -7.35616 7.86776 -1.81213 -7.34442 
7.8632 -1.74526 -7.35616 6.85335 -1.55285 -7.24355 6.85576 -1.60289 -7.25282 
6.89613 -1.49698 -7.34283 6.85874 -1.5922 -7.22149 6.85747 -1.55949 -7.22181 
6.95956 -1.49698 -7.27432 7.87902 -1.64727 -7.35616 7.93623 -1.62387 -7.31911 
6.89613 -1.38265 -7.34283 6.89613 -1.3394 -7.34283 6.95956 -1.39424 -7.27432 
6.95956 -1.3394 -7.27432 6.64689 -1.30908 -7.28649 6.66265 -1.25769 -7.19796 
6.60386 -1.31894 -7.33562 6.60708 -1.18182 -7.33935 6.85898 -1.2774 -7.22292 
6.85607 -1.24527 -7.21978 6.84953 -1.23916 -7.24105 6.85452 -1.28426 -7.24544 
6.60708 -1.04099 -7.33935 6.60708 -1.02425 -7.33935 6.50771 -0.911576 -7.32369 
6.52289 -0.924579 -7.31938 6.59675 -0.962351 -7.29402 6.57505 -0.671707 -7.19796 
6.5167 -0.689921 -7.26646 6.50771 -0.688753 -7.27778 6.65696 -0.0240489 -7.33742 
6.6545 -0.00199939 -7.33181 6.65124 0.0787883 -7.31895 6.64713 -0.0242448 -7.34938 
6.62941 0.0787883 -7.34884 6.6422 -0.00211633 -7.34868 6.62941 0.212824 -7.34884 
6.62941 0.236365 -7.34884 6.65124 0.205486 -7.31895 6.65124 0.236365 -7.31895 
6.61558 0.371587 -7.34921 6.61281 0.393941 -7.34875 6.64822 0.356918 -7.30663 
6.64586 0.393941 -7.30166 6.61281 0.525693 -7.34875 6.61281 0.551518 -7.34875 
6.64586 0.508982 -7.30166 6.64586 0.551518 -7.30166 6.60973 0.687728 -7.35003 
6.61019 0.709094 -7.35016 6.64624 0.667336 -7.29887 6.6474 0.709094 -7.30082 
7.93623 0.6585 -7.33258 7.89692 0.674678 -7.35616 6.61019 0.845914 -7.35016 
6.61019 0.866671 -7.35016 6.6474 0.827142 -7.30082 6.6474 0.866671 -7.30082 
6.61519 1.00603 -7.35089 6.61796 1.02425 -7.35146 6.64993 0.989967 -7.30517 
6.65363 1.02425 -7.31204 7.88492 0.943615 -7.32537 7.91154 1.02425 -7.30068 
7.85463 0.885989 -7.35616 6.61796 1.16719 -7.35146 6.61796 1.18182 -7.35146 
6.65363 1.15544 -7.31204 6.65363 1.18182 -7.31204 7.91063 1.0801 -7.35616 
6.63684 1.32955 -7.353 6.63918 1.3394 -7.35345 6.65862 1.3233 -7.32792 
6.66044 1.3394 -7.33171 7.61878 1.30749 -7.34395 7.60428 1.30982 -7.35616 
7.77751 1.30749 -7.34395 7.68566 1.30749 -7.34395 7.79412 1.31487 -7.35616 
6.63918 1.4898 -7.35345 6.63918 1.49698 -7.35345 6.66044 1.48501 -7.33171 
6.66044 1.49698 -7.33171 6.66643 1.5996 -7.35244 6.7813 1.5996 -7.35244 
6.82516 1.5996 -7.35244 6.82668 1.60743 -7.35213 6.86286 1.65455 -7.33213 
6.86286 1.77636 -7.33213 6.86286 1.81213 -7.33213 6.90725 1.90013 -7.30941 
6.96153 1.96971 -7.27131 6.96153 1.99537 -7.27131 6.96153 2.12728 -7.27131 
6.97077 2.14376 -7.2654 6.98388 2.15779 -7.25501 7.01461 2.15779 -7.25501 
7.14261 2.15779 -7.25501 7.15467 2.15908 -7.24333 7.20366 2.14676 -7.19796 
5.95547 4.79192 -7.20595 5.96835 4.78684 -7.19796 5.94849 4.78613 -7.21799 
5.95051 4.80608 -7.21464 5.95051 4.8227 -7.21464 5.95051 4.96366 -7.21464 
5.94877 5.00532 -7.19796 6.03154 5.40453 -7.3397 6.02583 5.43639 -7.31551 
5.97705 5.43639 -7.34678 6.19026 5.40453 -7.3397 6.11947 5.40453 -7.3397 
[...]
POINT_DATA 5328
SCALARS vg_dBN_dL double
LOOKUP_TABLE default
5.4327426932e-07 5.4327426932e-07 1.9298510151e-07 1.9298510151e-07 2.7025607837e-07 2.6295509772e-07 5.9752678309e-07 6.7898289007e-07 9.8786811547e-07 
9.5229186341e-07 9.8786811547e-07 9.8786811547e-07 9.6474877345e-07 7.7268149151e-07 7.4656698117e-07 4.7989806176e-07 5.7643081104e-07 5.6299321053e-07 
6.2457441442e-07 5.9325935885e-07 4.5597220456e-07 4.5038347041e-07 4.3523407256e-07 4.5385963493e-07 4.5597220456e-07 4.5597220456e-07 4.3581593667e-07 
4.2329331386e-07 1.8902051112e-07 1.7589262997e-07 1.6472731616e-07 1.6365699117e-07 1.6208531819e-07 9.5229186341e-07 9.5229186341e-07 7.2393356408e-07 
7.5037968819e-07 7.2393356408e-07 7.2393356408e-07 7.176514043e-07 7.1407189009e-07 9.0305853473e-07 1.0312953817e-06 2.8422571507e-07 2.8440210646e-07 
2.8465385508e-07 9.0305853473e-07 9.0305853473e-07 2.8465385508e-07 2.8465385508e-07 9.5243410344e-07 9.1727005876e-07 9.1727005876e-07 9.1727005876e-07 
5.6838649916e-07 9.4706568338e-07 5.3946505722e-07 2.8823590257e-07 3.3714746658e-07 3.348390146e-07 2.8823590257e-07 2.8823590257e-07 2.8917591018e-07 
5.6838649916e-07 5.6838649916e-07 5.3946505722e-07 5.3946505722e-07 3.348390146e-07 3.348390146e-07 9.4855916393e-07 1.1751089806e-06 3.8469397888e-07 
5.1210475056e-07 5.1210475056e-07 5.1210475056e-07 5.5001346276e-07 5.7436848669e-07 5.7436848669e-07 5.7436848669e-07 6.8590162196e-07 1.3353209338e-06 
9.6383064674e-07 5.9928859912e-07 6.1618046928e-07 6.8590162196e-07 6.8590162196e-07 6.1618046928e-07 6.1618046928e-07 8.2661993237e-07 1.285716913e-06 
9.0665905872e-07 8.2661993237e-07 8.2661993237e-07 6.1257550517e-07 9.0665905872e-07 9.0665905872e-07 9.8828504932e-07 9.9817218134e-07 9.9817218134e-07 
9.9817218134e-07 9.9374654588e-07 9.9374654588e-07 9.9374654588e-07 9.8738212548e-07 9.8666325596e-07 9.8666325596e-07 9.8666325596e-07 9.8997714241e-07 
1.0069568518e-06 1.015122676e-06 9.8997714241e-07 9.8997714241e-07 9.880509234e-07 1.015122676e-06 1.015122676e-06 9.7876192414e-07 9.7876192414e-07 
9.7876192414e-07 8.6587004889e-07 8.6587004889e-07 8.6587004889e-07 8.4703666263e-07 7.2040103115e-07 7.2040103115e-07 7.2040103115e-07 6.313333949e-07 
5.0369991232e-07 5.0369991232e-07 5.0369991232e-07 2.8905251386e-07 5.9272712685e-07 8.9977676646e-07 5.9272712685e-07 5.9272712685e-07 5.8776843286e-07 
5.9027344148e-07 4.5472824774e-07 5.296747321e-07 5.4197669895e-07 5.4854917863e-07 4.7882317573e-07 4.9063061293e-07 4.9063061293e-07 4.9063061293e-07 
4.5331721185e-07 4.7330001109e-07 2.8054158751e-07 3.0602329164e-07 2.8054158751e-07 2.8054158751e-07 7.2565884077e-08 6.4470436564e-08 -7.1825767818e-08 
3.0602329164e-07 3.0602329164e-07 3.1727524373e-07 3.1390874699e-07 3.7202021698e-07 3.7202021698e-07 3.7202021698e-07 4.9099752736e-07 4.9858851917e-07 
4.9858851917e-07 4.9858851917e-07 5.0533642298e-07 5.2728325171e-07 5.0533642298e-07 5.0533642298e-07 5.0332403976e-07 5.2728325171e-07 5.2728325171e-07 
5.4879991575e-07 5.5070461402e-07 5.5070461402e-07 5.5070461402e-07 5.4670420924e-07 5.3206147087e-07 5.3192933325e-07 5.4670420924e-07 5.4670420924e-07 
5.3192933325e-07 5.3192933325e-07 5.3176647314e-07 1.4999033905e-07 1.5545184204e-07 7.5037968819e-07 7.5037968819e-07 7.176514043e-07 7.176514043e-07 
1.0312953817e-06 1.0312953817e-06 2.8422571507e-07 2.8422571507e-07 2.8905251386e-07 2.8905251386e-07 -7.1825767818e-08 -7.1825767818e-08 5.3176647314e-07 
5.3176647314e-07 9.9001282761e-08 1.0172031115e-07 1.3102246222e-07 1.3102246222e-07 1.3102246222e-07 1.3022490225e-07 1.631228038e-07 1.631228038e-07 
1.631228038e-07 1.9875941124e-07 2.1451753783e-07 2.1451753783e-07 2.1451753783e-07 2.4136101311e-07 2.3821110602e-07 2.3232848728e-07 2.39714763e-07 
2.2537905906e-07 2.3821110602e-07 2.3821110602e-07 2.5414466193e-07 2.6348251727e-07 2.4557833555e-07 2.6348251727e-07 2.6348251727e-07 2.4621109209e-07 
2.0028601506e-07 1.9996176441e-07 2.0177872385e-07 1.980688841e-07 1.980688841e-07 1.980688841e-07 1.8602938298e-07 1.9933526575e-07 1.9479802409e-07 
1.8685008519e-07 1.9254984279e-07 1.9254984279e-07 1.9254984279e-07 1.9525156241e-07 5.7910461313e-07 5.8940111119e-07 5.7910461313e-07 5.7910461313e-07 
5.9545975261e-07 5.8654976588e-07 7.7541550851e-07 7.783990295e-07 7.783990295e-07 7.783990295e-07 2.5033827363e-07 2.5410286367e-07 2.5610836153e-07 
2.5610836153e-07 2.5610836153e-07 2.7133729189e-07 2.6562326259e-07 2.8761441635e-07 2.8761441635e-07 2.8761441635e-07 2.8738174718e-07 2.7820769789e-07 
2.7820769789e-07 2.7820769789e-07 1.049316618e-06 1.055373126e-06 4.4984110951e-07 3.7899926143e-07 3.4861336313e-07 1.0163682721e-06 9.4961089468e-07 
5.2061588766e-07 1.0757765944e-06 1.0864618762e-06 5.9751964595e-07 2.7492082201e-07 1.6214722598e-07 5.2061588766e-07 5.2061588766e-07 5.9751964595e-07 
5.9751964595e-07 8.904789224e-07 1.277426328e-06 8.6783085212e-07 8.6840128154e-07 1.092411002e-06 1.103453745e-06 1.0387483623e-06 1.0187562821e-06 
8.6840128154e-07 8.6840128154e-07 1.2037278898e-06 1.2531330081e-06 8.185461753e-07 9.1568747085e-07 9.7289207972e-07 9.8536103892e-07 5.7958219779e-07 
6.3617484972e-07 7.1259495698e-07 5.7427784426e-07 6.6369355215e-07 6.0849322211e-07 6.6369355215e-07 6.6369355215e-07 7.1259495698e-07 7.1259495698e-07 
7.0555357284e-07 7.1411121946e-07 7.8198536341e-07 8.2382652268e-07 7.1411121946e-07 7.1411121946e-07 8.2382652268e-07 8.2382652268e-07 6.7753053564e-07 
6.6206793936e-07 8.0640957423e-07 7.6669462403e-07 1.8996392034e-07 3.1273948045e-07 6.6206793936e-07 6.6206793936e-07 7.6669462403e-07 7.6669462403e-07 
5.8322355257e-07 5.539468498e-07 6.7472720177e-07 5.7950723678e-07 5.4051404084e-07 5.774255297e-07 6.2203109202e-07 5.539468498e-07 5.539468498e-07 
5.7950723678e-07 5.7950723678e-07 7.5646153993e-07 4.1914661593e-07 3.9293778196e-07 4.3748391304e-07 3.8104974184e-07 2.1761875565e-07 2.148490229e-07 
2.1761875565e-07 2.1761875565e-07 2.8813987492e-07 3.9293778196e-07 3.9293778196e-07 3.8104974184e-07 3.8104974184e-07 2.6146545501e-07 2.6146545501e-07 
2.6146545501e-07 2.5701535072e-07 1.9216378097e-07 1.9216378097e-07 1.9216378097e-07 1.1922880094e-07 7.6691278522e-08 7.6691278522e-08 7.6691278522e-08 
6.6810740642e-08 6.4470920507e-08 6.4470920507e-08 6.4470920507e-08 6.8084344902e-08 7.0448406486e-08 5.3369743803e-07 5.4924704513e-07 5.2644195523e-07 
5.0731205151e-07 5.0731205151e-07 5.0731205151e-07 5.3388865077e-07 -1.0403439167e-07 -4.9408386776e-08 7.7961385226e-08 -1.0403439167e-07 -1.0403439167e-07 
-1.0759085869e-07 7.7961385226e-08 7.7961385226e-08 -4.9408386776e-08 -4.9408386776e-08 -1.0759085869e-07 -1.0759085869e-07 5.3897223764e-07 5.378518646e-07 
5.3574483755e-07 5.4343847907e-07 1.9961884102e-07 4.3311377419e-07 4.8302846834e-07 3.0477785977e-07 -1.460862546e-07 1.9032858508e-07 1.9421986394e-07 
5.3897223764e-07 5.3897223764e-07 4.5797108309e-07 4.543645706e-07 4.6268107732e-07 4.726775202e-07 4.8129779142e-07 4.8129779142e-07 4.8129779142e-07 
4.5797108309e-07 4.5797108309e-07 4.8272842664e-07 5.1225112222e-07 4.7631611484e-07 5.1225112222e-07 5.1225112222e-07 5.2039202148e-07 4.7631611484e-07 
4.7631611484e-07 4.1027630384e-07 4.0438340184e-07 4.1027630384e-07 4.1027630384e-07 4.4659131627e-07 4.0438340184e-07 4.0438340184e-07 4.0681471843e-07 
4.071099216e-07 4.0490450533e-07 4.0490450533e-07 4.0490450533e-07 4.1155923074e-07 4.4094936226e-07 4.1886701899e-07 4.1155923074e-07 4.1155923074e-07 
4.1886701899e-07 4.1886701899e-07 4.0606761195e-07 3.926282797e-07 4.0606761195e-07 4.0606761195e-07 4.0138586037e-07 4.0305579243e-07 4.1155145939e-07 
3.926282797e-07 3.926282797e-07 3.4753810377e-07 3.4344142087e-07 3.5242211397e-07 3.7999871894e-07 3.4344142087e-07 3.4344142087e-07 2.9390393704e-07 
2.90372863e-07 2.9691759668e-07 3.3468151052e-07 3.430400695e-07 3.430400695e-07 3.430400695e-07 2.90372863e-07 2.90372863e-07 2.7658601397e-07 
1.9828704584e-07 1.9497272396e-07 1.9926460417e-07 2.0998074586e-07 2.0917510428e-07 2.0917510428e-07 2.0917510428e-07 2.3843827382e-07 1.9497272396e-07 
1.9497272396e-07 1.6496702124e-07 1.6132043369e-07 1.684389299e-07 1.8168299243e-07 1.8001008524e-07 1.8001008524e-07 1.8001008524e-07 1.6132043369e-07 
1.6132043369e-07 4.1846856561e-07 4.1828881295e-07 1.5344953183e-07 1.4658451608e-07 1.5257181109e-07 1.5257181109e-07 1.5257181109e-07 2.3232848728e-07 
2.3232848728e-07 2.2537905906e-07 2.2537905906e-07 2.4621109209e-07 2.4621109209e-07 1.9996176441e-07 1.9996176441e-07 1.8602938298e-07 1.8602938298e-07 
1.8685008519e-07 1.8685008519e-07 1.9525156241e-07 1.9525156241e-07 5.8940111119e-07 5.8940111119e-07 2.5033827363e-07 2.5033827363e-07 7.0448406486e-08 
7.0448406486e-08 -1.460862546e-07 -1.460862546e-07 1.9032858508e-07 1.9032858508e-07 2.7658601397e-07 2.7658601397e-07 2.3843827382e-07 2.3843827382e-07 
1.4658451608e-07 1.4658451608e-07 1.3542053486e-07 1.1705344866e-07 1.5441168277e-07 1.3393501125e-07 2.0503844427e-07 1.9654350373e-07 1.9517050552e-07 
1.8089485187e-07 2.2273846315e-07 2.2273846315e-07 2.2273846315e-07 2.2807611935e-07 2.2762009346e-07 2.1659804627e-07 2.1659804627e-07 2.1659804627e-07 
2.2592235059e-07 2.3551263675e-07 2.2592235059e-07 2.2592235059e-07 1.893158373e-07 1.6702440675e-07 2.3834820794e-07 3.2920556172e-08 2.0599349908e-07 
2.4658963346e-07 2.3573782237e-07 2.5640896202e-07 1.8765086202e-07 1.2315816234e-07 2.2271199849e-07 2.4279054266e-07 2.3128962236e-07 1.1821580156e-07 
2.0599349908e-07 2.0599349908e-07 2.2271199849e-07 2.2271199849e-07 1.8589868988e-07 2.215854067e-07 2.1119873048e-07 2.4452239142e-07 2.4411672709e-07 
2.2364127178e-07 1.8589868988e-07 1.8589868988e-07 2.2364127178e-07 2.2364127178e-07 2.2788807981e-07 2.2078745271e-07 4.8962559897e-07 4.9172212859e-07 
4.8962559897e-07 4.8962559897e-07 4.7093145939e-07 4.8656758904e-07 5.3728407952e-07 5.4447697776e-07 5.3728407952e-07 5.3728407952e-07 5.1398916582e-07 
5.5023172822e-07 5.9842088108e-07 6.0265495606e-07 1.3915643653e-07 1.5385388245e-07 1.1527642574e-07 1.1527642574e-07 1.1527642574e-07 7.0321509039e-08 
7.1433343294e-08 1.5385388245e-07 1.5385388245e-07 1.8446967546e-07 2.3397139866e-07 2.3397139866e-07 2.3397139866e-07 3.272581365e-07 2.2246700501e-07 
3.3201269222e-07 2.6832894356e-07 2.7714372743e-07 2.2909877669e-07 2.1949673883e-07 1.8511587158e-07 1.1867732314e-07 1.6492758196e-07 1.6492758196e-07 
1.6492758196e-07 1.99028642e-07 1.99028642e-07 1.99028642e-07 2.7528293533e-07 1.4754538382e-07 1.4302582366e-07 6.7392919484e-07 7.7219963161e-07 
5.7223766185e-07 6.8811398368e-07 6.8811398368e-07 6.8811398368e-07 5.6626360711e-07 5.4138083091e-07 5.4381950283e-07 5.3510870225e-07 5.1436553475e-07 
5.1436553475e-07 5.1436553475e-07 5.8949308523e-07 5.8691260007e-07 5.4759917271e-07 -1.4495844974e-07 -1.3935216705e-07 2.0023133447e-07 2.0023133447e-07 
2.0023133447e-07 1.9037063146e-07 5.8691260007e-07 5.8691260007e-07 -1.4495844974e-07 -1.4495844974e-07 5.463450827e-07 -2.2102523547e-07 -2.2102523547e-07 
-2.2102523547e-07 -2.3936986306e-07 2.0453633079e-07 2.1736703744e-07 5.8367215883e-07 5.7738911626e-07 5.849879997e-07 5.4207542267e-07 5.7758588117e-07 
5.7606450208e-07 5.7606450208e-07 5.7606450208e-07 5.7517367506e-07 5.8675926452e-07 5.7297519027e-07 6.046299469e-07 5.5130024193e-07 5.8675926452e-07 
5.8675926452e-07 5.0977803406e-07 5.1499994191e-07 5.5916286086e-07 5.5560553745e-07 5.6887915975e-07 5.6887915975e-07 5.6887915975e-07 5.3177294677e-07 
5.1808160837e-07 5.2355034664e-07 5.3177294677e-07 5.3177294677e-07 5.4844313888e-07 5.3501017233e-07 2.7490841812e-07 2.4693828893e-07 2.7490841812e-07 
2.7490841812e-07 2.7468835662e-07 2.4693828893e-07 2.4693828893e-07 2.460584277e-07 2.466967465e-07 1.4496204759e-07 1.4496204759e-07 1.4496204759e-07 
1.3604372698e-07 1.4046693477e-07 1.3604372698e-07 1.3604372698e-07 1.3628554299e-07 1.4090235972e-07 1.4449780786e-07 1.4046693477e-07 1.4046693477e-07 
3.7808891193e-07 3.8535052728e-07 1.408497215e-07 1.4077246425e-07 1.419078277e-07 1.3923243573e-07 1.3923243573e-07 1.3923243573e-07 1.3848730725e-07 
1.3890003818e-07 1.4077246425e-07 1.4077246425e-07 3.4132361457e-07 3.3245581655e-07 3.7038143491e-07 1.5250924671e-07 1.5441168277e-07 1.5441168277e-07 
1.8089485187e-07 1.8089485187e-07 1.6702440675e-07 1.6702440675e-07 3.2920556172e-08 3.2920556172e-08 2.5640896202e-07 2.5640896202e-07 2.3128962236e-07 
2.3128962236e-07 2.4452239142e-07 2.4452239142e-07 2.4411672709e-07 2.4411672709e-07 4.9172212859e-07 4.9172212859e-07 7.0321509039e-08 7.0321509039e-08 
1.8865285161e-07 2.5350283821e-07 2.3925475823e-07 2.981639405e-07 2.6785586831e-07 3.3214150476e-07 3.3080077816e-07 4.7844010064e-07 4.8417867509e-07 
2.7528293533e-07 2.7528293533e-07 5.463450827e-07 5.463450827e-07 -2.3936986306e-07 -2.3936986306e-07 5.7517367506e-07 5.7517367506e-07 5.4844313888e-07 
5.4844313888e-07 1.5250924671e-07 1.5250924671e-07 1.766565159e-07 1.5497313662e-07 1.766565159e-07 1.766565159e-07 1.7081953872e-07 -2.3038166824e-08 
-3.6156587093e-08 -4.1382111582e-08 -6.4358274695e-08 -2.3038166824e-08 -2.3038166824e-08 -1.6980484369e-08 -1.6980484369e-08 -1.6980484369e-08 2.5891492656e-07 
4.9729867902e-09 2.8950273747e-08 -4.7066710784e-10 2.5891492656e-07 2.5891492656e-07 2.5699656372e-07 2.5170428485e-07 1.8526411505e-07 1.0115950971e-07 
2.3853938391e-07 2.5170428485e-07 2.5170428485e-07 2.5347928346e-07 2.5460084027e-07 2.567374558e-07 2.4397081397e-07 2.5020653499e-07 2.567374558e-07 
2.567374558e-07 2.606848464e-07 2.606848464e-07 2.606848464e-07 2.2308972326e-07 2.2325295906e-07 2.4339756471e-07 2.2325295906e-07 2.2325295906e-07 
2.2329410813e-07 2.2329410813e-07 2.2329410813e-07 2.2287280884e-07 5.1291572e-07 5.1127694813e-07 5.1291572e-07 5.1291572e-07 4.3681229577e-07 
4.459378516e-07 5.1041875447e-07 4.3681229577e-07 4.3681229577e-07 4.3106581061e-07 4.9727471869e-07 4.8655599003e-07 4.8655599003e-07 4.8655599003e-07 
5.0250011037e-07 5.0460730174e-07 4.9781215772e-07 4.6384876764e-07 4.6280137453e-07 -7.6503415233e-08 -2.2407773504e-08 -7.6503415233e-08 -7.6503415233e-08 
-1.1618139537e-07 -1.0557896832e-07 2.7088894063e-07 2.6939914631e-07 1.7749708192e-07 1.8372038283e-07 2.3917940774e-07 2.7977325964e-07 2.9287299973e-07 
3.0708731883e-07 3.0708731883e-07 3.0708731883e-07 2.5517109657e-07 2.89274008e-07 3.5513975694e-07 3.8415980908e-07 3.8415980908e-07 3.8415980908e-07 
3.6896828841e-07 4.1444391783e-07 4.1444391783e-07 4.1444391783e-07 3.3924678186e-07 3.6649729065e-07 3.3457910035e-07 3.6649729065e-07 3.6649729065e-07 
2.9933744443e-07 2.6686188667e-07 2.6686188667e-07 2.6686188667e-07 2.4528493765e-07 2.3896680216e-07 2.3896680216e-07 2.3896680216e-07 2.5599238863e-07 
5.6678956521e-07 5.5849528806e-07 -1.9644503116e-07 -2.0173253539e-07 -1.9644503116e-07 -1.9644503116e-07 5.6628805729e-07 5.3055692658e-07 6.2876886253e-07 
-1.8669668947e-07 5.8210331353e-07 5.9111249993e-07 6.374276004e-07 6.374276004e-07 6.374276004e-07 5.6282454947e-07 5.2872359409e-07 5.2872359409e-07 
5.2872359409e-07 4.8641657663e-07 4.9974722662e-07 4.5123930594e-07 4.9974722662e-07 4.9974722662e-07 4.9858883502e-07 4.5123930594e-07 4.5123930594e-07 
3.657086363e-07 2.9569375908e-07 3.103847835e-07 3.2608787262e-07 3.2125567966e-07 2.9569375908e-07 2.9569375908e-07 2.6569508252e-07 2.9881522003e-07 
3.1105945746e-07 3.1122749339e-07 2.9750932047e-07 2.9750932047e-07 2.9750932047e-07 2.6569508252e-07 2.6569508252e-07 2.5098477526e-07 2.8150569407e-07 
2.8166831811e-07 2.8951294429e-07 2.6364099145e-07 2.6364099145e-07 2.6364099145e-07 2.5098477526e-07 2.5098477526e-07 3.8586461606e-07 2.7581514145e-07 
2.4778022216e-07 2.6244442528e-07 2.6110236132e-07 2.558219418e-07 2.3499811017e-07 2.3499811017e-07 2.3499811017e-07 2.4975941677e-07 2.5059978486e-07 
2.6537196945e-07 2.4987868959e-07 2.7581514145e-07 2.7581514145e-07 2.4778022216e-07 2.4778022216e-07 3.7607277085e-07 3.5777832666e-07 3.6342985885e-07 
3.9029678421e-07 3.9740952908e-07 2.9054624033e-07 2.5120393378e-07 2.5120393378e-07 2.5120393378e-07 2.6796911485e-07 2.3649961261e-07 2.6147970879e-07 
2.6734419913e-07 3.5777832666e-07 3.5777832666e-07 3.5947958513e-07 3.624205877e-07 3.5947958513e-07 3.5947958513e-07 3.5439954672e-07 3.401755753e-07 
3.4657052211e-07 3.2889862615e-07 3.6016272526e-07 3.4315503416e-07 3.323466922e-07 1.6066204661e-07 1.6654867975e-07 1.6066204661e-07 1.6066204661e-07 
1.6137106322e-07 1.6654867975e-07 1.6654867975e-07 3.6589473419e-07 3.73050096e-07 1.8253240024e-07 1.8086153278e-07 1.8432179075e-07 1.778579797e-07 
1.778579797e-07 1.778579797e-07 1.684672389e-07 1.7607919623e-07 1.8086153278e-07 1.8086153278e-07 2.0103884026e-07 1.9801692868e-07 1.9779448046e-07 
1.9779448046e-07 1.9779448046e-07 -6.4358274695e-08 -6.4358274695e-08 2.5020653499e-07 2.5020653499e-07 5.1127694813e-07 5.1127694813e-07 4.3106581061e-07 
4.3106581061e-07 5.0460730174e-07 5.0460730174e-07 -1.1618139537e-07 -1.1618139537e-07 2.5543726543e-07 2.6526802047e-07 1.5583947199e-07 1.7172639011e-07 
9.8463001518e-08 1.1216469731e-07 1.3933732564e-07 1.6673932213e-07 2.3811316126e-07 2.7938348699e-07 3.5677514593e-07 3.7443152202e-07 3.2522699426e-07 
3.5199505194e-07 2.5599238863e-07 2.5599238863e-07 -1.8669668947e-07 -1.8669668947e-07 5.6282454947e-07 5.6282454947e-07 3.657086363e-07 3.657086363e-07 
3.2125567966e-07 3.2125567966e-07 3.4315503416e-07 3.4315503416e-07 -9.6185455428e-08 -9.5726444815e-08 -9.439135129e-08 -9.8814498858e-08 -9.6185455428e-08 
-9.6185455428e-08 -7.9420278567e-08 -7.9420278567e-08 -7.9420278567e-08 -6.8821462177e-08 -6.4310789526e-08 2.3543032729e-07 2.3686046e-07 2.2267810626e-07 
2.2210780118e-07 2.3686046e-07 2.3686046e-07 2.9910034189e-07 2.9910034189e-07 2.9910034189e-07 2.8542181538e-07 2.8898388797e-07 2.9524593194e-07 
3.0572118794e-07 3.0572118794e-07 3.0572118794e-07 3.0890843441e-07 2.95690152e-07 2.9335958909e-07 2.9604168496e-07 2.2659655105e-07 2.1524725326e-07 
2.3567666412e-07 4.8969347508e-07 4.862648313e-07 4.8969347508e-07 4.8969347508e-07 4.1291363091e-07 3.8928652569e-07 4.8611704823e-07 4.9465740869e-07 
4.8611704823e-07 4.8611704823e-07 4.7288690752e-07 5.054500545e-07 4.6384882519e-07 1.211952753e-06 1.186392189e-06 -2.4646802982e-07 -2.3007366285e-07 
-2.2693737164e-07 -2.4646802982e-07 -2.4646802982e-07 -2.4855172638e-07 1.2131745306e-06 1.2163143767e-06 2.5650195894e-07 2.6995033395e-07 2.248936943e-07 
2.6692485265e-07 3.5695250375e-07 3.7238994671e-07 3.0829268981e-07 3.1712598973e-07 8.6955203564e-07 8.1346621036e-07 3.6616517568e-07 3.6616517568e-07 
3.6616517568e-07 3.7252558812e-07 3.8110152558e-07 3.7252558812e-07 3.7252558812e-07 3.4800718732e-07 3.4733947147e-07 3.8110152558e-07 3.8110152558e-07 
3.601866707e-07 3.4497776836e-07 3.4497776836e-07 3.4497776836e-07 3.5491583351e-07 3.5570708568e-07 3.5802688453e-07 3.4270745407e-07 3.5570708568e-07 
3.5570708568e-07 3.2797398924e-07 -1.0706242032e-07 -1.8333766636e-07 -1.0706242032e-07 -1.0706242032e-07 5.6741900135e-07 5.7066969061e-07 -1.815011547e-07 
-1.8224709694e-07 -1.8224709694e-07 -1.8224709694e-07 -2.1306249889e-07 4.8595236184e-07 4.8515862207e-07 6.3408208282e-07 6.8273987494e-07 6.6745521867e-07 
5.596284348e-07 3.5641243105e-07 3.5641243105e-07 3.5641243105e-07 3.4202188687e-07 3.4881224711e-07 3.4881224711e-07 3.4881224711e-07 3.4708671826e-07 
9.3374738353e-08 9.0965513286e-08 9.0965513286e-08 9.0965513286e-08 1.7338116217e-07 3.3899854342e-07 3.3445476556e-07 3.3139057816e-07 3.4798739899e-07 
3.5625182097e-07 3.2668267214e-07 3.2752437309e-07 2.6721352857e-07 3.2143528053e-07 2.6043779178e-07 2.5757812271e-07 3.599290634e-07 2.9084475725e-07 
2.5757812271e-07 2.5757812271e-07 2.5762965575e-07 3.4746148817e-07 3.217700743e-07 3.5281731784e-07 -9.8814498858e-08 -9.8814498858e-08 2.9524593194e-07 
2.9524593194e-07 2.9604168496e-07 2.9604168496e-07 4.9465740869e-07 4.9465740869e-07 -2.4855172638e-07 -2.5158968208e-07 2.0032213603e-07 2.1862534238e-07 